   * xtb version 6.4.1 (afa7bdf) compiled by 'ehlert@majestix' on 2021-06-10
          program call               : xtb H2O_inp.xyz --opt --gfn1 --verbose
          number of atoms            :                     3
          number of electrons        :                     8
          charge                     :                     0
          spin                       :                   0.0

   ID    Z sym.   atoms
    1    8 O      1
    2    1 H      2, 3

          :  Hamiltonian                  GFN1-xTB          :
 * total energy  :    -5.7686780 Eh     change        0.2664535E-14 Eh
 * total energy  :    -5.7687382 Eh     change       -0.6015779E-04 Eh
 * total energy  :    -5.7687747 Eh     change       -0.3651954E-04 Eh
 * total energy  :    -5.7687749 Eh     change       -0.2473578E-06 Eh
   *** GEOMETRY OPTIMIZATION CONVERGED AFTER 4 ITERATIONS ***

 final structure:
================
3
 xtb: 6.4.1 (afa7bdf)
O        -0.00000000000000   -0.00000000011478    0.10634209046180
H         0.00000000000000    0.77090439981630   -0.46250804527506
H        -0.00000000000000   -0.77090439970152   -0.46250804518674

          :  Hamiltonian                  GFN1-xTB          :
         :: total energy              -5.768774917217 Eh    ::
         :: gradient norm              0.000116807119 Eh/a0 ::
         :: HOMO-LUMO gap              9.348069167069 eV    ::
         :: SCC energy                -5.806503593645 Eh    ::
         :: repulsion energy           0.037866246167 Eh    ::

    * Orbital Energies and Occupations

         #    Occupation            Energy/Eh            Energy/eV
      -------------------------------------------------------------
         1        2.0000           -0.7580103             -20.6265
         2        2.0000           -0.6125178             -16.6675
         3        2.0000           -0.5461301             -14.8610
         4        2.0000           -0.4999647             -13.6047 (HOMO)
         5                         -0.1564295              -4.2567 (LUMO)
         6                         -0.0498826              -1.3574
         7                          0.3488320               9.4922
         8                          0.4558537              12.4044
      -------------------------------------------------------------
                  HL-Gap            0.3435352 Eh            9.3481 eV

Wiberg/Mayer (AO) data.
largest (>0.10) Wiberg bond orders for each atom

     #   Z sym  total        # sym  WBO       # sym  WBO       # sym  WBO
 ---------------------------------------------------------------------------
     1   8 O    1.786 --     2 H    0.893     3 H    0.893
     2   1 H    0.894 --     1 O    0.893
     3   1 H    0.894 --     1 O    0.893
 ---------------------------------------------------------------------------

           -------------------------------------------------
          | TOTAL ENERGY               -5.768774917217 Eh   |
          | GRADIENT NORM               0.000116807119 Eh/α |
          | HOMO-LUMO GAP               9.348069167069 eV   |
           -------------------------------------------------

 * finished run on 2022/11/21 at 13:40:02.196
normal termination of xtb
